{
  "H": {
    "name": "Hydrogen",
    "atomic_number": 1,
    "mass": 1.008,
    "radius": 0.5,
    "electron_configuration": {"1s": 1},
    "valence_electrons": 1,
    "electronegativity": 2.2,
    "phase_state": "gas",
    "melting_point": 14.01,
    "boiling_point": 20.28,
    "possible_bonds": {
      "H": {"type": "covalent", "strength": 1.0, "max_bonds": 1},
      "O": {"type": "covalent", "strength": 1.5, "max_bonds": 1},
      "N": {"type": "covalent", "strength": 1.2, "max_bonds": 1},
      "C": {"type": "covalent", "strength": 1.1, "max_bonds": 1}
    },
    "color": [255, 255, 255]
  },
  "O": {
    "name": "Oxygen",
    "atomic_number": 8,
    "mass": 15.999,
    "radius": 0.6,
    "electron_configuration": {"1s": 2, "2s": 2, "2p": 4},
    "valence_electrons": 6,
    "electronegativity": 3.44,
    "phase_state": "gas",
    "melting_point": 54.36,
    "boiling_point": 90.188,
    "possible_bonds": {
      "H": {"type": "covalent", "strength": 1.5, "max_bonds": 2},
      "O": {"type": "covalent", "strength": 1.0, "max_bonds": 1},
      "C": {"type": "covalent", "strength": 1.3, "max_bonds": 2},
      "N": {"type": "covalent", "strength": 1.2, "max_bonds": 1}
    },
    "color": [255, 0, 0]
  }
} 